% Model:              Mismatch 1D e 2D - BH.mph
% Version:            COMSOL 6.2.0.339
% Date:               Dec 8 2024, 17:43
% Table:              1D T and R alpha=0.2 - 1D T and R
% Mat index                                       freq (Hz)                                         point_in * exp(2j*pi*freq /c0 * (3 [m] )) (Pa)    point_out * exp(2j*pi*freq /c0 * (3 [m] )) (Pa)
1                                                 0.01                                              -0.2410159160350001-0.4793965186855779i           0.7539356314768371-0.37904006331613593i
1                                                 0.02                                              -0.5065416464501209-0.59955825282209i             0.47332187272447757-0.3998898181794909i
1                                                 0.03                                              -0.6228094410423197-0.6268576316826984i           0.3320977128992401-0.3299530555005401i
1                                                 0.04                                              -0.6577575830024176-0.6548381391014709i           0.2626077808861077-0.26377855674496226i
1                                                 0.05                                              -0.6517135019600154-0.6927569208185755i           0.22491553615947793-0.21159007916814337i
1                                                 0.060000000000000005                              -0.6218493610035097-0.7370313822402089i           0.20234257242777115-0.1707208165096661i
1                                                 0.06999999999999999                               -0.5760367102629749-0.783557929967565i            0.18760750563856649-0.1379206389657454i
1                                                 0.08                                              -0.5184272597498861-0.8291805174503845i           0.17723747454696978-0.11081391364119751i
1                                                 0.09                                              -0.45158040580972814-0.8715858239837965i          0.16943171550043742-0.0877848637931841i
1                                                 0.09999999999999999                               -0.3773280783170131-0.9090685870826206i           0.163186754186949-0.06773410195762442i
1                                                 0.11                                              -0.29715251954489036-0.9403593213356422i          0.15790772548020465-0.049898668963364534i
1                                                 0.12                                              -0.21236072672812134-0.9645142756341566i          0.15322222147386333-0.03373551136075805i
1                                                 0.13                                              -0.12416726875516976-0.9808468195641432i          0.14888509708383602-0.018847648272542233i
1                                                 0.14                                              -0.03373292057957017-0.9888841342939163i          0.14472693495682803-0.004936940573431976i
1                                                 0.15000000000000002                               0.0578192728751184-0.9883389825362402i            0.14062470604083618+0.008226750529108318i
1                                                 0.16                                              0.14940001071399175-0.9790903668174874i           0.13648428110748542+0.02082622171041043i
1                                                 0.17                                              0.23995642495299246-0.9611693538298611i           0.13222953536651913+0.03301117169940357i
1                                                 0.18000000000000002                               0.3284785032319134-0.9347478205172265i            0.12779524389156213+0.044908358705825546i
1                                                 0.19                                              0.41400755568487774-0.9001287716174418i           0.12312220813109336+0.05662914688859894i
1                                                 0.2                                               0.4956457034961703-0.8577374339943954i            0.11815370867726939+0.0682754135744422i
1                                                 0.21000000000000002                               0.5725657388018629-0.8081126940103458i            0.11283273723542037+0.07994449291662646i
1                                                 0.22                                              0.6440209231608364-0.7518986948438642i            0.1070996626998444+0.09173366585402479i
1                                                 0.23                                              0.7093544245768957-0.6898366031881003i            0.10089010474388715+0.10374462858956339i
1                                                 0.24000000000000002                               0.7680081756137243-0.6227567247840419i            0.09413286321266515+0.11608836269124488i
1                                                 0.25                                              0.8195309821321338-0.5515713251629117i            0.0867478082377516+0.12889088543858843i
1                                                 0.26                                              0.8635857245327054-0.47726872547489974i           0.07864369593449762+0.14230048925438718i
1                                                 0.27                                              0.8999554562676679-0.4009095323489701i            0.06971596526558227+0.156497309947339i
1                                                 0.28                                              0.9285480794917534-0.32362628017266076i           0.05984473888453405+0.1717064428460947i
1                                                 0.29000000000000004                               0.9493989808001515-0.2466283998121328i            0.048893582964305696+0.18821643367806273i
1                                                 0.3                                               0.9626703649776629-0.17121540955489145i           0.036710257163149504+0.20640593489035927i
1                                                 0.31                                              0.9686446585200756-0.09880274529766148i           0.023132080315597214+0.22678282839736744i
1                                                 0.32                                              0.9677064722021471-0.030966952440265233i          0.00800144660682503+0.2500424164954847i
1                                                 0.33                                              0.9603014953389502+0.030479781455114187i          -0.008796830691952431+0.27715453935538736i
1                                                 0.34                                              0.9468476252108248+0.08337208331746004i           -0.027251576356321174+0.3094931728250561i
1                                                 0.35000000000000003                               0.9275457178698612+0.1250165087501919i            -0.047041996951515834+0.3490227304272434i
1                                                 0.36000000000000004                               0.901979064642519+0.1519615447109428i             -0.06714408861944944+0.3985387421046731i
1                                                 0.37                                              0.8682789954129595+0.1597982526533685i            -0.08500395511800882+0.4618770759507267i
1                                                 0.38                                              0.8214768015289406+0.1433809457416068i            -0.09489804288879794+0.5437022444169716i
1                                                 0.39                                              0.750740840875596+0.09874550275390065i            -0.08517893356234685+0.6475971462884668i
1                                                 0.4                                               0.6369627812109769+0.02969264541413319i           -0.03587038420806887+0.7694868912587196i
1                                                 0.41000000000000003                               0.4588899599157273-0.03901282729225998i           0.07519172785323652+0.884445705471751i
1                                                 0.42000000000000004                               0.2210636931857642-0.057333643594718875i          0.24441311653978942+0.9423937202848883i
1                                                 0.43                                              -0.021148286547336023+0.0097171936355773i         0.41740176873263357+0.9084239592359146i
1                                                 0.44                                              -0.2051938876433036+0.1349306361519858i           0.5326048474500759+0.8099513994574381i
1                                                 0.45                                              -0.31926010006802874+0.2633110435820583i          0.5792295248323631+0.7023058034604251i
1                                                 0.46                                              -0.3862964522924091+0.3640913247552452i           0.5812674627405952+0.6167176789795704i
1                                                 0.47000000000000003                               -0.4292592859749431+0.4324240397752551i           0.5627451995948574+0.55862666914247i
1                                                 0.48000000000000004                               -0.4610651770113756+0.4735969149954347i           0.537690735481032+0.5234630235953278i
1                                                 0.49                                              -0.4871861837674868+0.49426013543372965i          0.5127516211482572+0.5054130145812721i
1                                                 0.5                                               -0.5092094799370677+0.4999149724779254i           0.4907905200627759+0.49991538409137903i
1                                                 0.51                                              -0.5269286552077771+0.4947086374858094i           0.47302967373775645+0.5038377568429063i
1                                                 0.52                                              -0.539330568678729+0.4817425973413371i            0.4601124281711018+0.5151147093302719i
1                                                 0.53                                              -0.5450052747373433+0.4633632885567859i           0.4526116646448608+0.532359276147262i
1                                                 0.54                                              -0.5422851553321072+0.4413212448528291i           0.45128610247713696+0.5545297369139288i
1                                                 0.55                                              -0.5292710922647142+0.4167828672844502i           0.45721667408025934+0.5806178371878409i
1                                                 0.56                                              -0.5038475715788324+0.3901873902906957i           0.4718518740019893+0.6093006170111306i
1                                                 0.5700000000000001                                -0.46379906942799304+0.3609432106906516i          0.4969077028636766+0.6385085462517762i
1                                                 0.5800000000000001                                -0.4071964816228921+0.3270061539039909i           0.5339790039032388+0.6649243783136597i
1                                                 0.59                                              -0.3332705900898715+0.2845455429686342i           0.5836563943698694+0.6836005872508869i
1                                                 0.6                                               -0.24385839230949863+0.22821884972102224i         0.6440677838235209+0.6882048603810008i
1                                                 0.61                                              -0.14490579631630657+0.15281536535505552i         0.7093629698518921+0.6726469717842796i
1                                                 0.62                                              -0.04650699429430044+0.0564361901432496i          0.7696617594260025+0.634249817005975i
1                                                 0.63                                              0.04007023310098717-0.05656036921795708i          0.8140166124245274+0.5766907818464387i
1                                                 0.64                                              0.10733572882084258-0.1759420778027291i           0.8353523154934503+0.5096174476480757i
1                                                 0.65                                              0.15456046853610228-0.2898952294744009i           0.833438486127682+0.4443558478286501i
1                                                 0.66                                              0.186448662866976-0.3896993158283399i             0.8135512450050052+0.38923736451211766i
1                                                 0.67                                              0.20950552319769838-0.4714452942241497i           0.7828312199869653+0.3478822587328821i
1                                                 0.68                                              0.22921515724357738-0.5349966186732876i           0.7474525050625536+0.3202402132454941i
1                                                 0.6900000000000001                                0.24904213141707457-0.5821565204496516i           0.7116163403589789+0.3044240362646192i
1                                                 0.7000000000000001                                0.2706181430670128-0.6153027279317448i            0.6777312639663886+0.29807500662571684i
1                                                 0.7100000000000001                                0.29430189043591176-0.6367018473150788i           0.6469682163645196+0.29904728627217825i
1                                                 0.72                                              0.31969260899825913-0.6482807814045537i           0.6197715491070429+0.30563358061992846i
1                                                 0.73                                              0.34598581103056447-0.6516175946025852i           0.5962150451025753+0.3165690172364126i
1                                                 0.74                                              0.37218774697731455-0.6480085238637304i           0.5762201049064051+0.3309556167709907i
1                                                 0.75                                              0.39723283318505476-0.6385445912153962i           0.5596809786735563+0.34817249084371243i
1                                                 0.76                                              0.4200415181581618-0.624172889348464i             0.546534993964496+0.3677945542388703i
1                                                 0.77                                              0.4395436025042718-0.6057356793511889i            0.5368027857935348+0.3895234161393929i
1                                                 0.78                                              0.45468248094720043-0.5839865422093519i           0.530612855848703+0.41312658999915874i
1                                                 0.79                                              0.46441039884706203-0.5595837368648975i           0.5282170941934446+0.4383785497489194i
1                                                 0.8                                               0.4676831346963366-0.533060058070111i             0.5299978779578716+0.46499649643208363i
1                                                 0.81                                              0.46346408292922586-0.5047678379125023i           0.5364614834559966+0.4925642927501459i
1                                                 0.8200000000000001                                0.4507522344906158-0.47479924141389857i           0.5482056831240422+0.5204408319821588i
1                                                 0.8300000000000001                                0.4286551059986974-0.44288852089976327i           0.5658416079409574+0.5476566903358222i
1                                                 0.8400000000000001                                0.39653275161909973-0.4083182910810166i           0.589844239044255+0.5728191060185305i
1                                                 0.85                                              0.3542335778545682-0.36987879970404286i           0.6203109970738082+0.5940728093461165i
1                                                 0.86                                              0.30241079390189296-0.3259616243669366i           0.6566396480356251+0.6091970790334995i
1                                                 0.87                                              0.24283546576149215-0.27488022898181363i          0.6972095608419046+0.6159306730771241i
1                                                 0.88                                              0.17852439168796952-0.21544813121261594i          0.7392480987456177+0.6125547826087536i
1                                                 0.89                                              0.11346186781350587-0.14767651145063346i          0.7791030927259313+0.5985953550680017i
1                                                 0.9                                               0.05183599344215438-0.073252700572745i            0.8130007883767506+0.575305812073971i
1                                                 0.91                                              -0.0029673068958528965+0.004558002767381545i      0.8380461533504324+0.5455722365230976i
1                                                 0.92                                              -0.04912001568569445+0.08164315040337121i         0.8529730960311647+0.5131846919518372i
1                                                 0.93                                              -0.0864821087268369+0.15404646911318656i          0.8582692755985288+0.48183440645206355i
1                                                 0.9400000000000001                                -0.11614186451261424+0.21874646977585555i         0.855711429314223+0.4543335900428159i
1                                                 0.9500000000000001                                -0.13971775656547386+0.2739502064301629i          0.8476625706641246+0.4323174808854897i
1                                                 0.9600000000000001                                -0.15876861100514572+0.3189694843554235i          0.836477609098305+0.41636066380430614i
1                                                 0.97                                              -0.17446091555227103+0.35389926007546685i         0.8241659237067311+0.4062871188136354i
1                                                 0.98                                              -0.18746831099896544+0.3792844563909394i          0.8122851985089007+0.4014868336076107i
1                                                 0.99                                              -0.19801204146367418+0.3958633412969078i          0.801973988500344+0.4011497966543226i
1                                                 1                                                 -0.20596076575063008+0.40440047904281495i         0.79403923424506+0.4044034000855463i
1                                                 1.01                                              -0.21094149295292228+0.40558886166615227i         0.7890470658965618+0.4103731258759119i
1                                                 1.02                                              -0.21244208946828297+0.3999953673263369i          0.7873923332882855+0.4181930237133381i
1                                                 1.03                                              -0.20990304313107572+0.388030162514805i           0.7893378242492627+0.42698845841415173i
1                                                 1.04                                              -0.2028041239250698+0.3699301240542569i           0.7950209432780755+0.4358485244570399i
1                                                 1.05                                              -0.19075340989423772+0.34575560175217945i         0.8044283980491506+0.4438031075492752i
1                                                 1.06                                              -0.17358332628449247+0.31540808837244777i         0.8173422915723223+0.4498201660671217i
1                                                 1.07                                              -0.15145068939703077+0.2786825941587495i          0.8332671500269921+0.45284056639277015i
1                                                 1.08                                              -0.12492490312703579+0.23536978051487847i         0.851358530017511+0.45186667459672525i
1                                                 1.09                                              -0.09503273493098721+0.18541405499252633i         0.870388115137226+0.44611088741831184i
1                                                 1.1                                               -0.06321773221671977+0.12911046693914194i         0.8887894936549677+0.43518642094592i
1                                                 1.11                                              -0.031181421756349477+0.06728886606791518i        0.9048189711961933+0.41928813483516936i
1                                                 1.12                                              -6.128165609999483E-4+0.001406911442414862i       0.9168258834828198+0.39928428966768825i
1                                                 1.1300000000000001                                0.027127079655883467-0.06651731769185482i         0.9235663779658412+0.37664935733097643i
1                                                 1.1400000000000001                                0.05125540963909454-0.13414350949775172i          0.9244507513432608+0.3532269280440379i
1                                                 1.1500000000000001                                0.07165556154863538-0.19914695684061537i          0.9196279777321946+0.3308933773474363i
1                                                 1.1600000000000001                                0.08877906709071451-0.25953671717206794i          0.9098834952061108+0.31124119150595464i
1                                                 1.17                                              0.10342019144576833-0.31385458696164653i          0.8964093177485004+0.2953810700541145i
1                                                 1.18                                              0.11646121915188717-0.3612229468279225i           0.8805446084279429+0.2838943811569584i
1                                                 1.19                                              0.12866879946471962-0.40127391828755926i          0.8635671668177811+0.27690316390129815i
1                                                 1.2                                               0.14057567480198496-0.434019891521199i            0.8465701902818307+0.27419723964718623i
1                                                 1.21                                              0.1524419108626397-0.459717920201i                0.8304183858382037+0.27536553041612477i
1                                                 1.22                                              0.16427053325887972-0.47875770411670027i          0.8157581773907249+0.279901422181435i
1                                                 1.23                                              0.1758511744755521-0.49158197211966825i           0.8030552740930831+0.2872728884553549i
1                                                 1.24                                              0.1868125941818055-0.49863568177127154i           0.7926398639593233+0.29696048400751923i
1                                                 1.25                                              0.19667348494775913-0.500335828712654i            0.784747878484392+0.3084710132865294i
1                                                 1.26                                              0.20488755228019168-0.497053681972193i            0.7795528619305484+0.3213348731427722i
1                                                 1.27                                              0.2108829271199049-0.4891032639025053i            0.7771864502010558+0.3350935474600395i
1                                                 1.28                                              0.21409809122224716-0.4767323916864209i           0.7777469576235206+0.3492821375660776i
1                                                 1.29                                              0.21401734184238774-0.4601150421724499i           0.7812959601362267+0.3634108882844176i
1                                                 1.3                                               0.21020877476307687-0.43934613101745335i          0.7878428448113499+0.37694963102223494i
1                                                 1.31                                              0.2023668385474226-0.4144420542903267i            0.7973177704726824+0.38931981781490643i
1                                                 1.32                                              0.19035943098671665-0.38535236747338086i          0.8095350012198821+0.39989996365543024i
1                                                 1.33                                              0.17427593352926435-0.3519891501157029i           0.8241516343779753+0.408051008210749i
1                                                 1.34                                              0.1544675762380856-0.3142797013037098i            0.8406313345041145+0.41316696912058926i
1                                                 1.35                                              0.13156625448968387-0.2722436718643285i           0.8582276481829667+0.41475162221258083i
1                                                 1.36                                              0.1064651924482062-0.22608669208102172i           0.8760039805555193+0.41251287222738264i
1                                                 1.37                                              0.08024866566717126-0.17629058029381325i          0.8929033445910142+0.40645451448046643i
1                                                 1.3800000000000001                                0.05407110500658086-0.12367069901655642i          0.907867779678429+0.39693559308449616i
1                                                 1.3900000000000001                                0.029005974024451105-0.069371756497138i           0.9199871935937901+0.384668319055815i
1                                                 1.4000000000000001                                0.00590258614153831-0.014789159894593848i         0.9286395545412258+0.3706413435230589i
1                                                 1.4100000000000001                                -0.014707417133040412+0.03857042524351971i        0.9335807608901386+0.3559817487054334i
1                                                 1.42                                              -0.032628121071504916+0.0892519219040193i         0.9349583881428657+0.34179286670736997i
1                                                 1.43                                              -0.04794403889556743+0.13599354295243588i         0.9332513810700678+0.3290122136496719i
1                                                 1.44                                              -0.06091801987051254+0.17781534381259717i         0.9291621413266292+0.31832129321874025i
1                                                 1.45                                              -0.0718781851818704+0.21404562067785068i          0.9234966346131919+0.3101160522971681i
1                                                 1.46                                              -0.08112320278186537+0.24429634568579928i         0.9170615177835735+0.3045266226703174i
1                                                 1.47                                              -0.0888608367603155+0.26840845202196395i          0.9105927656717192+0.3014654516516907i
1                                                 1.48                                              -0.09518123268726719+0.28638711576405884i         0.9047166302783971+0.300683750414609i
1                                                 1.49                                              -0.10005838838791017+0.298341011166297i           0.8999355679542619+0.3018226258905198i
1                                                 1.5                                               -0.10337082311977919+0.3044326197515097i          0.8966291766810431+0.3044525783755154i
1                                                 1.51                                              -0.10493351493733352+0.30484167239460763i         0.8950611921784372+0.30810066646313655i
1                                                 1.52                                              -0.10453549959136679+0.29974127001887263i         0.8953861066372785+0.3122680132707744i
1                                                 1.53                                              -0.10197963214993469+0.2892856332477353i          0.8976517153743586+0.31644193758871664i
1                                                 1.54                                              -0.09712219607241564+0.273608926154136i           0.9017964049950979+0.3201075056981218i
1                                                 1.55                                              -0.08991011005378205+0.25283537175071125i         0.907642296835877+0.32276311813162895i
1                                                 1.56                                              -0.08041255740420343+0.22710121246578235i         0.9148875874336277+0.32394389458485595i