% Model:              Mismatch 1D e 2D - BH.mph
% Version:            COMSOL 6.2.0.339
% Date:               Dec 9 2024, 18:24
% Table:              1D T and R alpha=0.2 - 1D T and R
% Mat index                                       freq (Hz)                                         point_in * exp(2j*pi*freq /c0 * (3 [m] )) (Pa)    point_out * exp(2j*pi*freq /c0 * (3 [m] )) (Pa)
1                                                 0.005                                             -0.0773293673288179-0.2932318479931674i           0.9214076211857137-0.24298816411538104i
1                                                 0.01                                              -0.24101590791693883-0.4793965374865003i          0.7539356350911887-0.37904003760313587i
1                                                 0.015                                             -0.39513043534408876-0.5651652163504713i          0.5935239832212904-0.41495722508439825i
1                                                 0.02                                              -0.5065416084460477-0.5995582975828367i           0.4733218928789237-0.3998897753610152i
1                                                 0.025                                             -0.5788618464133234-0.6152818397902935i           0.38974190355950755-0.36667215465258085i
1                                                 0.030000000000000002                              -0.6228093683105166-0.6268577116405837i           0.33209774589555313-0.3299530076730532i
1                                                 0.034999999999999996                              -0.6471412478158473-0.6395582491630143i           0.29167118252102286-0.2951294166792728i
1                                                 0.04                                              -0.6577574736908913-0.6548382530489072i           0.2626078206044902-0.2637785069042364i
1                                                 0.045                                             -0.6584614773237668-0.672722199521379i            0.2411564352505281-0.23604427315485302i
1                                                 0.049999999999999996                              -0.6517133525810017-0.6927570633234795i           0.22491557887769792-0.21159002732381552i
1                                                 0.055                                             -0.6391397105068102-0.7143763452742652i           0.21232353465197992-0.18996206042927072i
1                                                 0.06                                              -0.6218491674401445-0.7370315462087708i           0.20234261596539807-0.17072076211885515i
1                                                 0.065                                             -0.6006238723958162-0.7602332586843228i           0.19426740678754728-0.1534813701064079i
1                                                 0.07                                              -0.5760364687074017-0.783558107378432i            0.1876075486247968-0.13792058150208528i
1                                                 0.07500000000000001                               -0.5485226401025403-0.8066437615758493i           0.18201492466887562-0.12377125042156122i
1                                                 0.08                                              -0.5184269672355692-0.8291806996373385i           0.17723751601818344-0.11081385269466767i
1                                                 0.085                                             -0.4860324807518477-0.8509039683963403i           0.1730895446711579-0.09886796149714194i
1                                                 0.09000000000000001                               -0.4515800604968743-0.8715860018319281i           0.16943175470622704-0.08778479906324604i
1                                                 0.095                                             -0.41528138199678777-0.8910307114236505i          0.16615813150771-0.0774410776135114i
1                                                 0.1                                               -0.37732767965432235-0.9090687512227125i          0.1631867904931682-0.06773403323063075i
1                                                 0.10500000000000001                               -0.3378957456129774-0.9255537706238779i           0.16045361757616552-0.058577466232403216i
1                                                 0.11                                              -0.2971520683709775-0.940359462352867i            0.15790775831912673-0.04989859609406081i
1                                                 0.115                                             -0.2552556979339594-0.9533772368283283i           0.15550837004177825-0.04163556249973395i
1                                                 0.12000000000000001                               -0.2123602253052319-0.9645143842830677i           0.15322225031137127-0.033735434256034334i
1                                                 0.125                                             -0.1686151367526268-0.9736926143739182i           0.15102208245381582-0.026152616045647732i
1                                                 0.13                                              -0.12416672073913954-0.9808468869847626i          0.14888512139997293-0.01884756687725478i
1                                                 0.135                                             -0.07915865076173345-0.9859244671527583i          0.146792197713646-0.011785763222164326i
1                                                 0.14                                              -0.03373233097440376-0.9888841522256278i          0.14472695423351536-0.004936854864011811i
1                                                 0.14500000000000002                               0.011972933670479136-0.9896956309720886i          0.14267525455798072+0.001726026957280774i
1                                                 0.15                                              0.057819897810919396-0.9883389435237301i          0.14062471975040933+0.00822684055157931i
1                                                 0.155                                             0.10367343387436459-0.9848040179118701i           0.13856436153764384+0.014587108581252301i
1                                                 0.16                                              0.14940066359599374-0.9790902644017254i           0.13648428870573362+0.02082631602530532i
1                                                 0.165                                             0.19487114451234883-0.9712062129951564i           0.13437546939096062+0.026962246655552247i
1                                                 0.17                                              0.23995709744577615-0.9611691827109853i           0.1322295362825502+0.03301127027369797i
1                                                 0.17500000000000002                               0.28453366408842795-0.9490049738830298i           0.1300386249153731+0.03898859055260817i
1                                                 0.18000000000000002                               0.3284791862355688-0.9347475766987495i            0.12779523752090904+0.04490846149672389i
1                                                 0.185                                             0.371675499992746-0.9184388908507574i             0.1254921266213882+0.05078437912047654i
1                                                 0.19                                              0.4140082395254429-0.90012845253336i              0.12312219382945022+0.05662925384588304i
1                                                 0.195                                             0.45536714600425415-0.8798731660934904i           0.12067840026754782+0.062455568308338046i
1                                                 0.2                                               0.4956463781827725-0.857737038579928i             0.11815368574801771+0.06827552464844718i
1                                                 0.20500000000000002                               0.5347448216472139-0.8337909162422907i            0.11554089440748688+0.07410118493309958i
1                                                 0.21000000000000002                               0.5725663942572388-0.8081122227619644i            0.11283270492169184+0.07994460806100107i
1                                                 0.215                                             0.6090203457107211-0.780784699644655i             0.11002156375509697+0.08581798635749882i
1                                                 0.22                                              0.6440215494581336-0.751898149846572i             0.10709962017345309+0.09173378503107793i
1                                                 0.225                                             0.6774907854229111-0.7215481863561827i            0.10405866197450572+0.09770488774577141i
1                                                 0.23                                              0.709355012203231-0.6898359880923756i             0.10089005109055052+0.10374475177852059i
1                                                 0.23500000000000001                               0.7395476275127275-0.656868066222918i             0.0975846584163407+0.10986757656149984i
1                                                 0.24000000000000002                               0.7680087157156029-0.6227560447722013i            0.094132797420223+0.11608848989838585i
1                                                 0.245                                             0.7946852812629772-0.5876164603501822i            0.09052415635349317+0.12242375679592994i
1                                                 0.25                                              0.8195314667588678-0.5515705868574727i            0.08674772917409664+0.12889101671120587i
1                                                 0.255                                             0.8425087541130074-0.5147442923617396i            0.08279174573252132+0.13550955611695464i
1                                                 0.26                                              0.8635861468526136-0.47726793685204333i           0.07864360233248434+0.14230062469671645i
1                                                 0.265                                             0.8827403309827577-0.4392763215253753i            0.07428979459603043+0.14928780526326121i
1                                                 0.27                                              0.8999558107834535-0.40090870260052364i           0.06971585569865275+0.15649744974721624i
1                                                 0.275                                             0.9152250144403297-0.3623088855888477i            0.06490630466680454+0.16395919644628457i
1                                                 0.28                                              0.9285483622122626-0.32362541957967733i           0.05984461174658231+0.17170658730750898i
1                                                 0.28500000000000003                               0.9399342866029341-0.2850119157067554i            0.05451319117538293+0.17977780851019878i
1                                                 0.29000000000000004                               0.9493991894000033-0.246627519575552i             0.04889343644562533+0.1882165832699036i
1                                                 0.295                                             0.9569673136529142-0.20863757456803783i           0.042965820005829075+0.19707325282553526i
1                                                 0.3                                               0.9626704989015412-0.17121452166128148i           0.036710089238183696+0.20640609031224127i
1                                                 0.305                                             0.9665477737303169-0.13453909213027693i           0.030105604865358057+0.21628290292647395i
1                                                 0.31                                              0.9686447190445598-0.0988018623696506i            0.023131888742919868+0.22678299067049906i
1                                                 0.315                                             0.9690125052545507-0.06420525508054203i           0.01576947827843648+0.23799954497550546i
1                                                 0.32                                              0.9677064624206585-0.030966087622889465i          0.008001228968427677+0.2500425870841129i
1                                                 0.325                                             0.9647839777421721+6.812152307194841E-4i          -1.857286977227368E-4+0.26304256251713853i
1                                                 0.33                                              0.9603014200346415+0.030480614588673405i          -0.008797076876209838+0.27715472031648924i
1                                                 0.335                                             0.9543096521809218+0.058149527214974836i          -0.0178270027029378+0.29256440580084314i
1                                                 0.34                                              0.9468474905467604+0.08337287086984868i           -0.02725185337496215+0.30949336695989144i
1                                                 0.34500000000000003                               0.9379321788548112+0.10579607290608586i           -0.03702082043520823+0.32820708607570453i
1                                                 0.35000000000000003                               0.927545530784664+0.12501723667430262i            -0.047042306377985954+0.3490229413335452i
1                                                 0.35500000000000004                               0.9156138284881452+0.14057909182696424i           -0.057164059496766104+0.37231857172375227i
1                                                 0.36                                              0.9019788318103127+0.15196219939537509i           -0.06714443039508236+0.3985389738246409i
1                                                 0.365                                             0.8863564196542008+0.1585824623248318i            -0.07661127007381979+0.42819927928812096i
1                                                 0.37                                              0.8682787217908743+0.15979882268422074i           -0.08500432625384119+0.46187733142981136i
1                                                 0.375                                             0.8470158685401334+0.15494184095591523i           -0.09149726356076657+0.5001853651847074i
1                                                 0.38                                              0.821476489565593+0.143381426445014i              -0.09489843684669932+0.5437025211507587i
1                                                 0.385                                             0.790095551831163+0.12466232561467805i            -0.09353900554328393+0.5928395867419287i
1                                                 0.39                                              0.7507404952291572+0.09874590518349391i           -0.08517934518565784+0.6475974275226226i
1                                                 0.395                                             0.7007098178075818+0.06639458945970506i           -0.06700790544455637+0.7071827492377524i
1                                                 0.4                                               0.6369624312366975+0.029693002982346922i          -0.03587083240707964+0.7694871394885561i
1                                                 0.405                                             0.5567669737078617-0.007426432969639116i          0.011078460889606068+0.8305616405970286i
1                                                 0.41000000000000003                               0.45888970139925994-0.0390124923590666i           0.07519115811872047+0.8844458961212156i
1                                                 0.41500000000000004                               0.3450872364559525-0.05783056326753139i           0.15483006358056156+0.9239037095426463i
1                                                 0.42000000000000004                               0.22106366032913638-0.05733342705610402i          0.24441230206209658+0.9423939485769677i
1                                                 0.425                                             0.09577666250401781-0.03426489524419023i          0.3351029897536659+0.9366742925149611i
1                                                 0.43                                              -0.021148108333936624+0.00971707829083377i        0.41740073501699704+0.9084244399891858i
1                                                 0.435                                             -0.12250707094690419+0.06869105918358054i         0.4842275559945333+0.8635955272812972i
1                                                 0.44                                              -0.2051936990856107+0.13493009940661096i          0.532603805847222+0.8099522253791551i
1                                                 0.445                                             -0.26983335801367087+0.20143836775755183i         0.5632830026527442+0.7545361555428383i
1                                                 0.45                                              -0.3192600583098817+0.2633101903719535i           0.5792286426032021+0.7023068746173071i
1                                                 0.455                                             -0.3569960292568376+0.31785775882830153i          0.5840939108232615+0.6560141689078212i
1                                                 0.46                                              -0.38629658004504885+0.36409029849574465i         0.5812667720097885+0.6167188586584048i
1                                                 0.465                                             -0.40975589909689497+0.4020738443696366i          0.5734761074402861+0.5844329582867941i
1                                                 0.47000000000000003                               -0.4292595375030581+0.43242293500072426i          0.562744663150969+0.5586278710276504i
1                                                 0.47500000000000003                               -0.4460892073260553+0.45597272515038234i          0.5504944618091342+0.538562102381087i
1                                                 0.48000000000000004                               -0.46106549620520765+0.4735957796987166i          0.5376903046514308+0.5234642091572662i
1                                                 0.485                                             -0.4746778501218212+0.48611305694058826i          0.5249707436839428+0.5126214476613854i
1                                                 0.49                                              -0.4871865244750526+0.49425899198175743i          0.5127512559242888+0.5054141717778329i
1                                                 0.495                                             -0.4986966727565029+0.4986746526818095i           0.5012998234769529+0.5013219564153123i
1                                                 0.5                                               -0.5092098085782458+0.49991383191512956i          0.4907901914180786+0.4999165125452331i
1                                                 0.505                                             -0.5186584665203027+0.49845392629574364i          0.4813386645705626+0.5008494501893759i
1                                                 0.51                                              -0.5269289487045613+0.4947075065415662i           0.4730293610847266+0.5038388601620599i
1                                                 0.515                                             -0.5338758267456889+0.48903268218696283i          0.46593161193726285+0.5086564486555807i
1                                                 0.52                                              -0.5393308121855496+0.48174148126357275i          0.46011211629571874+0.5151157914459273i
1                                                 0.525                                             -0.5431078148074899+0.4731059883546946i           0.4556436288994291+0.5230616909237092i
1                                                 0.53                                              -0.5450054603096659+0.4633621919287516i           0.4526113409452045+0.5323603396013797i
1                                                 0.535                                             -0.5448079908038403+0.4527115393988853i           0.4511176616503567+0.5428898656910679i
1                                                 0.54                                              -0.5422852817336535+0.44132017164394843i          0.4512857543279685+0.55453078212023i
1                                                 0.545                                             -0.5371926481793211+0.429315758571202i            0.45326187742898605+0.5671558465741785i
1                                                 0.55                                              -0.529271166019633+0.4167818209836284i            0.4572162858703715+0.5806188625444537i
1                                                 0.555                                             -0.5182493906862334+0.4037494401120181i           0.46334212929265667+0.5947420289015506i
1                                                 0.56                                              -0.5038476092927583+0.3901863751506483i           0.47185142350453474+0.6093016204245768i
1                                                 0.5650000000000001                                -0.48578608672505835+0.37598390114219005i         0.4829667751222987+0.6240121213745373i
1                                                 0.5700000000000001                                -0.46379910092649357+0.36094223566036127i         0.4969071571694977+0.6385095294585535i
1                                                 0.5750000000000001                                -0.4376567740851909+0.3447563418383733i           0.5138657901904039+0.6523354980969636i
1                                                 0.5800000000000001                                -0.40719655186039794+0.32700524135091075i         0.5339783168266029+0.6649253560087686i
1                                                 0.585                                             -0.3723652850663168+0.3071496820551097i           0.5572803414212674+0.6756047739309714i
1                                                 0.59                                              -0.3332707545190966+0.2845447431923047i           0.5836555105430483+0.6836016019992135i
1                                                 0.595                                             -0.29023776272196444+0.258474936306281i           0.612779021155865+0.6880803887261357i
1                                                 0.6                                               -0.24385869712475233+0.2282182562279388i          0.6440666580183825+0.6882059982592267i
1                                                 0.605                                             -0.19502292837026453+0.19314089769977857i         0.6766450006005327+0.6832380113096338i
1                                                 0.61                                              -0.14490623973921743+0.1528151136201452i          0.7093616053278543+0.6726483614728045i
1                                                 0.615                                             -0.0949044665982702+0.10714028642483742i          0.7408509853593377+0.6562422588534577i
1                                                 0.62                                              -0.04650748808988522+0.05643641738626461i         0.7696602460978297+0.6342515898584723i
1                                                 0.625                                             -0.0011293426336009807+0.0014770356732919006i     0.794418604997718+0.6073677820388865i
1                                                 0.63                                              0.0400698574961742-0.05655959627106827i           0.8140151204596202+0.5766929999000563i
1                                                 0.635                                             0.07632527107551046-0.11621781094552386i          0.8277396884562638+0.5436128330105591i
1                                                 0.64                                              0.10733565048603325-0.17594080968787507i          0.8353510252578613+0.5096200570625002i
1                                                 0.645                                             0.13324621373503945-0.234251106060886i            0.8370592084522835+0.4761342380260234i
1                                                 0.65                                              0.1545607955747219-0.2898936069090762i            0.8334375064860114+0.4443587061223004i
1                                                 0.655                                             0.17201560940070762-0.34191780097833596i          0.8252958292304426+0.4151984254103954i
1                                                 0.66                                              0.1864494051648688-0.3896974971458368i            0.8135505858957494+0.3892403132279462i
1                                                 0.665                                             0.19869539509394527-0.43290257829541845i          0.7991163234304877+0.36678154021312315i
1                                                 0.67                                              0.20950662129642197-0.47144339986135453i          0.7828308211293341+0.3478851789957313i
1                                                 0.675                                             0.21951486721634833-0.5054065375914473i           0.7654137453236664+0.3324444943611355i
1                                                 0.68                                              0.2292165260130594-0.5349947163348979i            0.7474522794808542+0.32024304056408814i
1                                                 0.685                                             0.23897671458021827-0.56047750636512i             0.729405020966419+0.3110039768047906i
1                                                 0.6900000000000001                                0.2490436899484179-0.5821546360082321i            0.7116162041135714+0.304426749532068i
1                                                 0.6950000000000001                                0.2595676146074729-0.6003309577199791i            0.6943342993561042+0.300212101681555i
1                                                 0.7000000000000001                                0.27061982707937093-0.6153008624012415i           0.6777311483693823+0.29807761096200885i
1                                                 0.7050000000000001                                0.28221048714307406-0.6273396946466369i           0.6619195085480726+0.29776620094059547i
1                                                 0.71                                              0.2943036539168564-0.6366999903134817i            0.6469680693681904+0.2990497992891257i
1                                                 0.715                                             0.30682958318976783-0.6436108119549278i           0.632913731656173+0.30172986254280393i
1                                                 0.72                                              0.3196944214893056-0.6482789193614957i            0.61977133221341+0.30563602386426636i
1                                                 0.725                                             0.33278764717005727-0.6508909038185329i           0.6075411692254074+0.3106237275071394i
1                                                 0.73                                              0.3459876540782454-0.6516157149285343i            0.5962147292583992+0.3165714116023373i
1                                                 0.735                                             0.3591658523567266-0.6506072242397907i            0.5857789955049786+0.32337758324552124i
1                                                 0.74                                              0.37218961117387334-0.6480066166451733i           0.5762196667038134+0.3309579803639091i
1                                                 0.745                                             0.38492431069449445-0.6439444959018894i           0.567523557767593+0.3392429160738434i
1                                                 0.75                                              0.3972347161905817-0.6385426496064243i            0.5596803971287532+0.3481748382002893i
1                                                 0.755                                             0.40898584052732057-0.6319154530870049i           0.5526841865529657+0.35770609768912287i
1                                                 0.76                                              0.4200434237113077-0.6241709094091851i            0.5465342477323514+0.3677968963112267i
1                                                 0.765                                             0.4302741296915068-0.6154113298481687i            0.5412360456945793+0.37841337053622426i
1                                                 0.77                                              0.43954554034228666-0.605733659833431i            0.5368018505735436+0.3895257608066837i
1                                                 0.775                                             0.44772601371861975-0.5952294522139243i           0.5332512749139476+0.40110661129201175i