% Model:              Mismatch 1D e 2D - BH.mph
% Version:            COMSOL 6.2.0.339
% Date:               Dec 8 2024, 17:42
% Table:              1D T and R alpha=0.1 - 1D T and R
% Mat index                                       freq (Hz)                                         point_in * exp(2j*pi*freq /c0 * (3 [m] )) (Pa)    point_out * exp(2j*pi*freq /c0 * (3 [m] )) (Pa)
1                                                 0.01                                              -0.7963649141631114-0.45675773360517624i          0.1972465541500515-0.34390273786029035i
1                                                 0.02                                              -0.8843948250611174-0.41591857511858954i          0.09013468144058628-0.19165925878863457i
1                                                 0.03                                              -0.8761186713426478-0.46013447351653625i          0.06688519526905912-0.12735270183561012i
1                                                 0.04                                              -0.8412211471469475-0.5295287445911006i           0.05822584427299828-0.09249887189918382i
1                                                 0.05                                              -0.790531038205936-0.6059802153710785i            0.05389731560736461-0.070311702897289i
1                                                 0.060000000000000005                              -0.7274229759956186-0.6820874724508744i           0.051243665204272454-0.05464961746059421i
1                                                 0.06999999999999999                               -0.6536849103368265-0.7539445918581349i           0.04933498212461208-0.042774407714607866i
1                                                 0.08                                              -0.5706965739717063-0.819093799474578i            0.047777149130907616-0.033288318554562976i
1                                                 0.09                                              -0.4797488022117936-0.8758108495939816i           0.04637899781254582-0.025405335705287937i
1                                                 0.09999999999999999                               -0.3821431589106363-0.9228165514481986i           0.04503759217435205-0.018650302398844604i
1                                                 0.11                                              -0.279221333259622-0.9591478708093271i            0.04369238237624233-0.012719462380731583i
1                                                 0.12                                              -0.1723680398370443-0.9840958611678801i           0.042304720230668995-0.007409828645537998i
1                                                 0.13                                              -0.06300253699648789-0.9971737422054041i          0.04084785983455251-0.0025808128430941137i
1                                                 0.14                                              0.047435244591099324-0.9980990858319999i          0.03930170092864889+0.0018678363925268143i
1                                                 0.15000000000000002                               0.157501266836159-0.9867825135122759i             0.03764983507940348+0.006009324890797115i
1                                                 0.16                                              0.2657652615875945-0.9633190738795572i            0.03587777294140151+0.009898138600310904i
1                                                 0.17                                              0.37082911050791395-0.927980277444111i            0.0339718007974534+0.013575431478794512i
1                                                 0.18000000000000002                               0.4713451865341016-0.8812056917925105i            0.031918177491222+0.017072607974571267i
1                                                 0.19                                              0.5660342539211922-0.82359350583353i              0.02970251048974443+0.020413757809595586i
1                                                 0.2                                               0.6537026036180813-0.7558897633127909i            0.02730921380796162+0.023617338178188726i
1                                                 0.21000000000000002                               0.733258153806143-0.6789761443378188i             0.024720982650221688+0.026697347537100142i
1                                                 0.22                                              0.8037252873583683-0.5938562889776097i            0.02191823446823553+0.02966414538309003i
1                                                 0.23                                              0.8642582365392604-0.5016407351642519i            0.018878470455228977+0.03252501728341052i
1                                                 0.24000000000000002                               0.9141528649030182-0.40353059820276826i           0.015575508130005487+0.0352845495262685i
1                                                 0.25                                              0.9528567400823778-0.30080015922773573i           0.011978525159180279+0.037944855027531484i
1                                                 0.26                                              0.9799774421693609-0.19477855906460373i           0.008050835715748482+0.04050567697118262i
1                                                 0.27                                              0.9952891145032539-0.08683081549077298i           0.003748290483767555+0.04296438655610215i
1                                                 0.28                                              0.9987373427764865+0.021661602732982677i          -9.828557175917269E-4+0.04531588504385753i
1                                                 0.29000000000000004                               0.9904425539624068+0.1293203994697566i            -0.006208838374010962+0.04755241825709042i
1                                                 0.3                                               0.9707022752574023+0.23479001541599387i           -0.0120123862871378+0.049663315816522925i
1                                                 0.31                                              0.9399928136281237+0.33675685806683114i           -0.01849836873491424+0.05163468313421872i
1                                                 0.32                                              0.8989712608292639+0.4339678861647963i            -0.025801936112715935+0.0534491140127131i
1                                                 0.33                                              0.8484792936773407+0.5252481528346198i            -0.03410053902299877+0.055085584023337915i
1                                                 0.34                                              0.7895512112293028+0.6095167134547135i            -0.04363215501642745+0.056519895327788706i
1                                                 0.35000000000000003                               0.7234304013447864+0.6857998348284193i            -0.054723777566529214+0.057726529492078155i
1                                                 0.36000000000000004                               0.6516017342195949+0.7532393072471961i            -0.06783750387486939+0.058683919968682434i
1                                                 0.37                                              0.5758539296770623+0.8110908182849095i            -0.0836480874512553+0.059388022749882044i
1                                                 0.38                                              0.4983996096274672+0.8586998462349511i            -0.10317946938318809+0.05988659210008375i
1                                                 0.39                                              0.422110832623951+0.8954213296653638i             -0.12805787507030045+0.06036780087484005i
1                                                 0.4                                               0.35099762052740624+0.9203839453801376i           -0.16100876811561105+0.06140230407429197i
1                                                 0.41000000000000003                               0.29122315126418935+0.9317745552357604i           -0.20689111347109726+0.06466315511587349i
1                                                 0.42000000000000004                               0.2533108332515203+0.9244323830700085i            -0.27492394607122483+0.07533402761263124i
1                                                 0.43                                              0.25629185219563755+0.8805222933311113i           -0.38285362450663163+0.11143643544154636i
1                                                 0.44                                              0.322511470408248+0.7293824025132791i             -0.5517798548807705+0.24398084357142916i
1                                                 0.45                                              0.2926246903552919+0.2691567903166656i            -0.6211709255938946+0.6753310981285815i
1                                                 0.46                                              -0.33909867057533344-0.03048442616206981i         -0.08418806361552622+0.9364801988070058i
1                                                 0.47000000000000003                               -0.7001646307620955+0.1992844929743481i           0.18768631463305585+0.6594156726302535i
1                                                 0.48000000000000004                               -0.792087687052662+0.32765631202669937i           0.19686275396630876+0.4759028194746755i
1                                                 0.49                                              -0.8351829710767114+0.3567257223996686i           0.1644187870189321+0.3849449649730066i
1                                                 0.5                                               -0.8692426115890386+0.3371326114958867i           0.13075738840102513+0.3371370490502037i
1                                                 0.51                                              -0.8988846493528438+0.29194653065761716i          0.10093795711069604+0.31078149905393293i
1                                                 0.52                                              -0.9234096217230493+0.23208120459125364i          0.07451460370818089+0.2964802884075751i
1                                                 0.53                                              -0.9416416941150765+0.16360418745236033i          0.050358259108219894+0.28984244060715114i
1                                                 0.54                                              -0.9527254932273903+0.09052179278369932i          0.02743363339115598+0.2887340351220121i
1                                                 0.55                                              -0.9562142910834092+0.0159291380750069i           0.004867511226807286+0.2921931043864332i
1                                                 0.56                                              -0.9520374112318077-0.05744010131313465i          -0.0180999408923843+0.29999634755568705i
1                                                 0.5700000000000001                                -0.9404516492234326-0.12687753669453303i          -0.042163825511815925+0.3125300224674094i
1                                                 0.5800000000000001                                -0.9219767870366562-0.18939853385492228i          -0.06796716975067164+0.330858704923299i
1                                                 0.59                                              -0.8972634845786521-0.24134680482418341i          -0.09602618668729582+0.35699993125808194i
1                                                 0.6                                               -0.8667406720395797-0.2777537256108238i           -0.12642096078828333+0.39450124960626937i
1                                                 0.61                                              -0.829593441242882-0.2912534937382878i            -0.1578075033432398+0.4494918617470206i
1                                                 0.62                                              -0.7807377299957682-0.27054190938658307i          -0.1844209200398823+0.5322072983076265i
1                                                 0.63                                              -0.7022318392686469-0.20044910197241717i          -0.18751196708539578+0.6569093297202071i
1                                                 0.64                                              -0.5450406208283696-0.07723686813675415i          -0.1171342328783031+0.8265862052200001i
1                                                 0.65                                              -0.23729415709071028+0.024460006319227283i        0.09957538576534761+0.9660113496729053i
1                                                 0.66                                              0.14946623833643677-0.06473577757649136i          0.39212959662743735+0.9053747887269347i
1                                                 0.67                                              0.3885564993884656-0.3028088930102719i            0.5349385603468348+0.6864192419758971i
1                                                 0.68                                              0.4754298364215452-0.498876999102677i             0.5245696427609199+0.49991491339539057i
1                                                 0.6900000000000001                                0.5117088071355388-0.6094947490962774i            0.46375955945207525+0.38935502396210053i
1                                                 0.7000000000000001                                0.5437519984507179-0.6601860457021057i            0.3999615399387399+0.32942210846132974i
1                                                 0.7100000000000001                                0.5819053388600668-0.6738831815480864i            0.3445776279992654+0.29754646028206855i
1                                                 0.72                                              0.6257569541628053-0.6636689694848984i            0.2981951508960826+0.28116077968666386i
1                                                 0.73                                              0.6726804773874457-0.6367317972147994i            0.2591124029380626+0.2737413976049177i
1                                                 0.74                                              0.7200374604290116-0.5973063758804602i            0.2255243404282015+0.2718637847879165i
1                                                 0.75                                              0.7656286148607955-0.5481871286335932i            0.19595819196428435+0.2736861032438984i
1                                                 0.76                                              0.8077152305307262-0.49146729360413555i           0.1692805687824849+0.27820873629814724i
1                                                 0.77                                              0.8449563015796604-0.42890550705111463i           0.14462197093990095+0.2849094856942309i
1                                                 0.78                                              0.8763447505864859-0.3621148291996909i            0.121302719631762+0.29356158592394854i
1                                                 0.79                                              0.9011576851907391-0.2926665790593713i            0.09877644968216144+0.30414527916840767i
1                                                 0.8                                               0.9189185669303217-0.222154638998586i             0.07659137635340958+0.3168119233499563i
1                                                 0.81                                              0.9293651091723788-0.15224512315982164i           0.05436778492466049+0.33188269179679i
1                                                 0.8200000000000001                                0.9324147464998843-0.0847276132316736i            0.03179289770090472+0.34987605346141487i
1                                                 0.8300000000000001                                0.9281156137736737-0.021581411395786766i          0.008640000845885178+0.37156570596733457i
1                                                 0.8400000000000001                                0.9165617715087133+0.03492977336217366i           -0.015170484524743517+0.39807582020525717i
1                                                 0.85                                              0.8977311868539695+0.08212239978293007i           -0.03942889842415928+0.4310221044758877i
1                                                 0.86                                              0.8711628363151912+0.1167172137484731i            -0.063331155708689+0.47269611819813817i
1                                                 0.87                                              0.8353085332797933+0.1346807788210284i            -0.08484710529322545+0.5262335420577073i
1                                                 0.88                                              0.7862744228077031+0.13134601185243805i           -0.09947801836381609+0.5955038918926625i
1                                                 0.89                                              0.7156601468961975+0.10267413288177757i           -0.09811158262316105+0.6838586631226655i
1                                                 0.9                                               0.6081779010220452+0.04980139197851116i           -0.06465680682471173+0.7895941462503581i
1                                                 0.91                                              0.4441588161946376-0.01062932099828634i           0.021433687629458797+0.8956285574147739i
1                                                 0.92                                              0.21880347678355594-0.03777904436974272i          0.16589724551827734+0.9608204086905358i
1                                                 0.93                                              -0.028646716444657487+0.0100357452026061i         0.33047407941957263+0.9433268447887968i
1                                                 0.9400000000000001                                -0.23396565660070878+0.12413487379311136i         0.45194806500278+0.8518178078431409i
1                                                 0.9500000000000001                                -0.37024242300332644+0.2531224019263956i          0.504432091063026+0.7378332414916196i
1                                                 0.9600000000000001                                -0.4539320172373542+0.3582063720894851i           0.5054055046260293+0.6404679631837747i
1                                                 0.97                                              -0.5095313282883083+0.42893867427354143i          0.48037869132283056+0.5706362718244138i
1                                                 0.98                                              -0.5525602923357951+0.4691030090785036i           0.4458656738662844+0.5251888077179594i
1                                                 0.99                                              -0.5900516804090159+0.48553831516393625i          0.40986948570885706+0.49809492574773157i
1                                                 1                                                 -0.6243336128584996+0.48428934975252325i          0.37566638708862693+0.4842996295507635i
1                                                 1.01                                              -0.6555800185937634+0.4700301172899476i           0.34436714416493314+0.48031012465957595i
1                                                 1.02                                              -0.6830817525342334+0.4463579534038742i           0.3162127575115333+0.48391469444364366i
1                                                 1.03                                              -0.7058036479787656+0.41617228994194166i          0.2911772784730601+0.4938195013364225i
1                                                 1.04                                              -0.7225940887213402+0.38196366741929705i          0.2692559243825859+0.5093749975179103i
1                                                 1.05                                              -0.732221919470898+0.346003569172709i             0.2506314383444552+0.5303928726539788i
1                                                 1.06                                              -0.7333104205393443+0.31045024962108536i          0.23581555262006387+0.5570167303475785i
1                                                 1.07                                              -0.7241867051272499+0.27736913444312206i          0.22582048209202832+0.5895975203622575i
1                                                 1.08                                              -0.7026446211171709+0.24862931483195322i          0.22239423819378157+0.6285021377824084i
1                                                 1.09                                              -0.6656342428801079+0.22557556256181896i          0.2283203821608475+0.6737333502746365i
1                                                 1.1                                               -0.6089863608255817+0.20828752165233033i          0.2476795627237396+0.7241593837015861i
1                                                 1.11                                              -0.5275609644995587+0.1941942848217014i           0.28568613330891013+0.7761130369994869i
1                                                 1.12                                              -0.4167609803085267+0.17613199649517158i          0.3471593998622326+0.8214427026784541i
1                                                 1.1300000000000001                                -0.27669383340900855+0.1413220679984534i          0.4323471424886072+0.8464895045434574i
1                                                 1.1400000000000001                                -0.11823313676331991+0.07509329338435082i         0.5308491094617441+0.8358116439682197i
1                                                 1.1500000000000001                                0.03580587518420216-0.028374058424855762i         0.620426825187967+0.7829325787270266i
1                                                 1.1600000000000001                                0.1619578554524964-0.1570883762528306i            0.6782803865471442+0.6993058655271773i
1                                                 1.17                                              0.25117567323270795-0.2875766905642892i           0.6961021680901898+0.6079903961220393i
1                                                 1.18                                              0.31028119662131426-0.4003477907646274i           0.6815131809623355+0.5281923273837227i
1                                                 1.19                                              0.35186638845921425-0.48716262264286986i          0.6479501291752766+0.46799930651060107i
1                                                 1.2                                               0.38614652681094724-0.5482129475041022i           0.6065052421961714+0.42720588522543196i
1                                                 1.21                                              0.41890366200211915-0.5871596164844944i           0.563857362189347+0.4022787475529146i
1                                                 1.22                                              0.45249508875199207-0.6081575688236791i           0.5232695577753862+0.38933470436905293i
1                                                 1.23                                              0.4872836214260776-0.6147799682386978i            0.4860107184232546+0.3852191666678987i
1                                                 1.24                                              0.5226444198847066-0.6098631490488219i            0.45235678826787473+0.3876635858593789i
1                                                 1.25                                              0.5575335890489236-0.5956520298936276i            0.4221581301174235+0.395142340859871i
1                                                 1.26                                              0.5907745135535233-0.5739897876704344i            0.39513077162803245+0.40668528379638247i
1                                                 1.27                                              0.6211879703490553-0.546474278821659i             0.3710001315961479+0.4217231099218033i
1                                                 1.28                                              0.6476396346481895-0.5145694071101613i            0.34957449386555395+0.43997622717744483i
1                                                 1.29                                              0.6690421334708451-0.4796776520990464i            0.33079054295337507+0.4613781878363643i
1                                                 1.3                                               0.6843278879695625-0.443181002858305i             0.3147542499845768+0.4860205697481951i
1                                                 1.31                                              0.692397783204205-0.4064527466342942i             0.3017910465188432+0.514105006183452i
1                                                 1.32                                              0.6920454672052203-0.37083472334202383i           0.2925142993658698+0.5458849501527178i
1                                                 1.33                                              0.6818573569803449-0.3375632974727279i            0.2879159210753961+0.581572233742331i
1                                                 1.34                                              0.6600980319547758-0.3076113965569733i            0.28947103648615097+0.6211702963335162i
1                                                 1.35                                              0.6246197456273814-0.2813960070068049i            0.2992185230249763+0.6641798199873659i
1                                                 1.36                                              0.5729003266727803-0.25829692007047916i           0.31971325495763736+0.7091201095000379i
1                                                 1.37                                              0.502426167744046-0.23599509515443445i            0.35363329502952145+0.7528729115454136i
1                                                 1.3800000000000001                                0.4117388557832174-0.20987104512842342i           0.40272339516503697+0.7900879182707272i
1                                                 1.3900000000000001                                0.30230080742886317-0.17316871457406194i          0.46591939202567695+0.8133546077846753i
1                                                 1.4000000000000001                                0.18047278351898333-0.11896601074558102i          0.5373606327903868+0.8151809921463458i
1                                                 1.4100000000000001                                0.05755174427319515-0.044066571024025565i         0.6063420504512377+0.7918934238626578i
1                                                 1.42                                              -0.053889787378138376+0.047685562525215386i       0.660964880291456+0.7469588056041508i
1                                                 1.43                                              -0.14551871462530783+0.14625674759387752i         0.6936421225527337+0.6901405613244709i
1                                                 1.44                                              -0.21597011774925262+0.24025660492115095i         0.7038185024687136+0.6326715718210558i
1                                                 1.45                                              -0.26907603249082357+0.3214664003966092i          0.6961916473419811+0.5827304025728378i
1                                                 1.46                                              -0.31030367855804747+0.38616937858953465i         0.6771444952215631+0.5441141399611432i
1                                                 1.47                                              -0.34427031207704284+0.4340603731897006i          0.6522568702999614+0.5173301548999476i
1                                                 1.48                                              -0.3739196293826707+0.46662685938003334i          0.625482121599388+0.5012140662374309i
1                                                 1.49                                              -0.4006684619916457+0.4859889683188378i           0.599298778466524+0.49408544785244457i
1                                                 1.5                                               -0.4248425339866896+0.4943044824584833i           0.5751574655869837+0.4943336825576072i
1                                                 1.51                                              -0.44607571521462824+0.49354077861987383i         0.5538991779646346+0.5006293453900325i
1                                                 1.52                                              -0.4635872482171225+0.48542336067536157i          0.5360610031470037+0.5119470823651173i
1                                                 1.53                                              -0.4763470904717763+0.47144552747489404i          0.5220802978085329+0.5275083172994062i
1                                                 1.54                                              -0.4831618908590338+0.4528803617663306i           0.5124283636892526+0.5466914360929556i
1                                                 1.55                                              -0.482712950314112+0.430765675606811i             0.5076977882863313+0.568922261397246i