% Model:              Mismatch 1D e 2D.mph
% Version:            COMSOL 6.2.0.339
% Date:               Dec 13 2024, 09:52
% Table:              Accumulated Probe Table 6 - 
% Mat lente index                                 freq (Hz)                                         Scattered acoustic pressure (Pa), Point Probe out Scattered acoustic pressure (Pa), Point Probe in  Total acoustic pressure (Pa), Pressione nel fuoco
1                                                 0.01                                              0                                                 0                                                 0.9992168176297215-0.0691837055442989i
1                                                 0.060000000000000005                              0                                                 0                                                 0.9384761457325737-0.43338281964833375i
1                                                 0.11                                              0                                                 0                                                 0.7439504803478436-0.7970957406398357i
1                                                 0.16000000000000003                               0                                                 0                                                 0.3882600438144066-1.0955343357058887i
1                                                 0.21000000000000002                               0                                                 0                                                 -0.11177007837307407-1.2360730832793274i
1                                                 0.26                                              0                                                 0                                                 -0.6742262551661136-1.1352032122856857i
1                                                 0.31000000000000005                               0                                                 0                                                 -1.169542777073942-0.7652330870523274i
1                                                 0.36000000000000004                               0                                                 0                                                 -1.4631400906753331-0.17241492217479962i
1                                                 0.41000000000000003                               0                                                 0                                                 -1.4538213663780313+0.5305967402301657i
1                                                 0.46                                              0                                                 0                                                 -1.1037437972273172+1.1867940429434438i
1                                                 0.51                                              0                                                 0                                                 -0.45723891262818567+1.6285804072783676i
1                                                 0.56                                              0                                                 0                                                 0.3566242888885094+1.7231706465177676i
1                                                 0.6100000000000001                                0                                                 0                                                 1.1536540009229652+1.4161721724731955i
1                                                 0.66                                              0                                                 0                                                 1.7387726458351722+0.7463404032305435i
1                                                 0.7100000000000001                                0                                                 0                                                 1.9488793496218866-0.1519405737259815i
1                                                 0.76                                              0                                                 0                                                 1.7062119283447048-1.0732520844746696i
1                                                 0.81                                              0                                                 0                                                 1.0399663856792198-1.7971193167167663i
1                                                 0.8600000000000001                                0                                                 0                                                 0.0825341966296857-2.133453920238487i
1                                                 0.91                                              0                                                 0                                                 -0.9483082763489984-1.9760718492067069i
1                                                 0.9600000000000001                                0                                                 0                                                 -1.8079108586926678-1.3374914507178406i
1                                                 1.01                                              0                                                 0                                                 -2.2796770167853824-0.34316979507897366i
1                                                 1.06                                              0                                                 0                                                 -2.225866413900545+0.7838452029255244i
1                                                 1.11                                              0                                                 0                                                 -1.635196909402907+1.7759185290731425i
1                                                 1.1600000000000001                                0                                                 0                                                 -0.623297132489698+2.3884871635940748i
1                                                 1.2100000000000002                                0                                                 0                                                 0.5854715364381129+2.451846624081495i
1                                                 1.26                                              0                                                 0                                                 1.703264027151021+1.9267073377928607i
1                                                 1.31                                              0                                                 0                                                 2.4574498992174902+0.9165714101851045i
1                                                 1.36                                              0                                                 0                                                 2.648396846081933-0.3560918201032099i
1                                                 1.4100000000000001                                0                                                 0                                                 2.2068124206806257-1.5889451780351063i
1                                                 1.4600000000000002                                0                                                 0                                                 1.219842118880791-2.483472592238229i
1                                                 1.51                                              0                                                 0                                                 -0.09637162108112052-2.8120530174345597i
1                                                 1.56                                              0                                                 0                                                 -1.432302062679038-2.473342766284561i
1                                                 1.61                                              0                                                 0                                                 -2.466163092244323-1.5315258048893767i
1                                                 1.6600000000000001                                0                                                 0                                                 -2.9421121002713004-0.1916874629151232i
1                                                 1.7100000000000002                                0                                                 0                                                 -2.7245596069058298+1.2354527817058654i
1                                                 1.76                                              0                                                 0                                                 -1.8482442420568794+2.4069771363755432i
1                                                 1.81                                              0                                                 0                                                 -0.503606359512826+3.037476517879765i
1                                                 1.86                                              0                                                 0                                                 1.0014148610703435+2.9564624827547075i
1                                                 1.9100000000000001                                0                                                 0                                                 2.3060080826914255+2.1648267649491886i
1                                                 1.9600000000000002                                0                                                 0                                                 3.094977876375021+0.8349704309513258i
2                                                 0.01                                              0                                                 0                                                 1.0603605212421259-0.04644760194946959i
2                                                 0.060000000000000005                              0                                                 0                                                 0.12860620538225942-0.8676568458690683i
2                                                 0.11                                              0                                                 0                                                 0.0205867592380084-0.38275797770121417i
2                                                 0.16000000000000003                               0                                                 0                                                 0.07659594971656863-0.3360208547339414i
2                                                 0.21000000000000002                               0                                                 0                                                 0.17154274504168943-0.5526291363850468i
2                                                 0.26                                              0                                                 0                                                 -1.0404854423494385-0.37520521452927347i
2                                                 0.31000000000000005                               0                                                 0                                                 -0.4432688780033631-0.019333036455406377i
2                                                 0.36000000000000004                               0                                                 0                                                 -0.4420155117211202-0.09030635686260985i
2                                                 0.41000000000000003                               0                                                 0                                                 -1.1393179933418307+0.2628873682357975i
2                                                 0.46                                              0                                                 0                                                 -0.2866059631636175+0.5327720305774395i
2                                                 0.51                                              0                                                 0                                                 0.029865960846666956+0.5177030286790685i
2                                                 0.56                                              0                                                 0                                                 -0.03163479749869372+0.7661965695246353i
2                                                 0.6100000000000001                                0                                                 0                                                 0.6413665385555765+0.23780120000852936i
2                                                 0.66                                              0                                                 0                                                 0.8903490196438778+0.49311092722421135i
2                                                 0.7100000000000001                                0                                                 0                                                 0.6486782665579869-0.08472603623225611i
2                                                 0.76                                              0                                                 0                                                 0.4546943174378326-0.8808609357077111i
2                                                 0.81                                              0                                                 0                                                 0.3081776894095336-0.4820265898298124i
2                                                 0.8600000000000001                                0                                                 0                                                 -0.08483316069622243-0.9969671487202115i
2                                                 0.91                                              0                                                 0                                                 -0.8360600626517222-0.924692939575622i
2                                                 0.9600000000000001                                0                                                 0                                                 -0.5515378930567976-0.20119301650787155i
2                                                 1.01                                              0                                                 0                                                 -0.9014534624026482-0.4485023002615078i
2                                                 1.06                                              0                                                 0                                                 -1.4534645310157972+0.5472244330819205i
2                                                 1.11                                              0                                                 0                                                 -0.14153743971233085+0.7233681043043259i
2                                                 1.1600000000000001                                0                                                 0                                                 -0.27836923550628795+0.6249688177463042i
2                                                 1.2100000000000002                                0                                                 0                                                 0.1828648517804019+1.0303202709751824i
2                                                 1.26                                              0                                                 0                                                 1.2143252679348606+0.40069214420942295i
2                                                 1.31                                              0                                                 0                                                 0.6563208111748415+0.11981506869435148i
2                                                 1.36                                              0                                                 0                                                 1.2570062096693921-0.03259541787793796i
2                                                 1.4100000000000001                                0                                                 0                                                 0.793421977602994-0.8340651772735969i
2                                                 1.4600000000000002                                0                                                 0                                                 0.040483270468662985-1.0767014015891707i
2                                                 1.51                                              0                                                 0                                                 0.1407558664140774-0.9114168775054668i
2                                                 1.56                                              0                                                 0                                                 -0.9131414675789751-0.8943356749659679i
2                                                 1.61                                              0                                                 0                                                 -0.9704767286846577-0.3392901412974961i
2                                                 1.6600000000000001                                0                                                 0                                                 -1.013302213833558+0.14192067716361717i
2                                                 1.7100000000000002                                0                                                 0                                                 -1.142049315041206+0.8199115432057636i
2                                                 1.76                                              0                                                 0                                                 -0.5340463618430613+0.7392077605656647i
2                                                 1.81                                              0                                                 0                                                 -0.3746863632819439+0.9969638217929089i
2                                                 1.86                                              0                                                 0                                                 0.6746647300691416+1.4625461715497483i
2                                                 1.9100000000000001                                0                                                 0                                                 0.8277035929874629+0.333884097161859i
2                                                 1.9600000000000002                                0                                                 0                                                 0.9611695403903472+0.13350431193361173i
3                                                 0.01                                              0                                                 0                                                 0.019125211827759198+8.812491355673115E-4i
3                                                 0.060000000000000005                              0                                                 0                                                 0.01743860548503698-0.013207198239224116i
3                                                 0.11                                              0                                                 0                                                 0.0059316145127085995-0.02037323131325991i
3                                                 0.16000000000000003                               0                                                 0                                                 -0.00627692059839105-0.019067139202606553i
3                                                 0.21000000000000002                               0                                                 0                                                 -0.01470460677022202-0.01176239322148473i
3                                                 0.26                                              0                                                 0                                                 -0.017499455188503897-0.00198418924331642i
3                                                 0.31000000000000005                               0                                                 0                                                 -0.014921107841747758+0.0069589528046268i
3                                                 0.36000000000000004                               0                                                 0                                                 -0.008642788973961951+0.012756837239474045i
3                                                 0.41000000000000003                               0                                                 0                                                 -9.465309507431796E-4+0.014426948350965196i
3                                                 0.46                                              0                                                 0                                                 0.006004305868419019+0.01222160360274819i
3                                                 0.51                                              0                                                 0                                                 0.010646058050323814+0.007257834238743749i
3                                                 0.56                                              0                                                 0                                                 0.012205357031202124+0.001065116431499591i
3                                                 0.6100000000000001                                0                                                 0                                                 0.010668613089845486-0.004797303553229965i
3                                                 0.66                                              0                                                 0                                                 0.006649106290101098-0.009001458100826476i
3                                                 0.7100000000000001                                0                                                 0                                                 0.0012287436094146273-0.010627517030658923i
3                                                 0.76                                              0                                                 0                                                 -0.004242882551638922-0.009302014309888529i
3                                                 0.81                                              0                                                 0                                                 -0.008517274391302232-0.005236297264568285i
3                                                 0.8600000000000001                                0                                                 0                                                 -0.011602897039917487+0.0013738293883886477i
3                                                 0.91                                              0                                                 0                                                 -0.036020155738192755+0.028279501336602036i
3                                                 0.9600000000000001                                0                                                 0                                                 -0.14189720205005593-0.017829885485462105i
3                                                 1.01                                              0                                                 0                                                 0.015976389107722117+0.011807211619369512i
3                                                 1.06                                              0                                                 0                                                 0.33583411842706123-0.12097770001800777i
3                                                 1.11                                              0                                                 0                                                 -0.16408029968816726-0.08661137507668937i
3                                                 1.1600000000000001                                0                                                 0                                                 -0.3641564434285092+0.38575353006967017i
3                                                 1.2100000000000002                                0                                                 0                                                 0.19060373790551421+0.43657093171881595i
3                                                 1.26                                              0                                                 0                                                 0.027557820674440108+0.19456236889683529i
3                                                 1.31                                              0                                                 0                                                 0.5782234176900953+0.6213768901675083i
3                                                 1.36                                              0                                                 0                                                 0.4500897879690397-0.3774461856743154i
3                                                 1.4100000000000001                                0                                                 0                                                 0.3647802915025551-0.5515985257079976i
3                                                 1.4600000000000002                                0                                                 0                                                 -0.5742592278340966-1.1091150284469693i
3                                                 1.51                                              0                                                 0                                                 -0.7510859545515697-0.1293432452367485i
3                                                 1.56                                              0                                                 0                                                 -0.7345989599097861-0.1341321648073372i
3                                                 1.61                                              0                                                 0                                                 -0.9169349621394383+1.0231672846068838i
3                                                 1.6600000000000001                                0                                                 0                                                 0.03334324391052712+1.000739040189925i
3                                                 1.7100000000000002                                0                                                 0                                                 0.3802128329003705+1.2410102508322955i
3                                                 1.76                                              0                                                 0                                                 1.5556419185582975+0.5459187058856445i
3                                                 1.81                                              0                                                 0                                                 1.1998539417291079-0.5221335870368446i
3                                                 1.86                                              0                                                 0                                                 1.0545694266811108-1.0525275566764538i
3                                                 1.9100000000000001                                0                                                 0                                                 0.19620102440480802-1.6223891016768741i
3                                                 1.9600000000000002                                0                                                 0                                                 -0.8257732406524783-1.3721900370392073i
4                                                 0.01                                              0                                                 0                                                 -0.04281748569339655-2.035188792222425i
4                                                 0.060000000000000005                              0                                                 0                                                 -0.004620316544936248-0.04774065665402764i
4                                                 0.11                                              0                                                 0                                                 0.002913396522933487-0.03829786000759547i